/*--------------------------------*- C++ -*----------------------------------*\
| =========                 |                                                 |
| \\      /  F ield         | OpenFOAM: The Open Source CFD Toolbox           |
|  \\    /   O peration     | Version:  2206                                  |
|   \\  /    A nd           | Website:  www.openfoam.com                      |
|    \\/     M anipulation  |                                                 |
\*---------------------------------------------------------------------------*/
FoamFile
{
    version     2.0;
    format      ascii;
    arch        "LSB;label=32;scalar=64";
    class       volScalarField;
    location    "0";
    object      C;
}
// * * * * * * * * * * * * * * * * * * * * * * * * * * * * * * * * * * * * * //

dimensions      [0 0 0 0 0 0 0];


internalField   nonuniform List<scalar> 
250
(
0.0989999
0.0989999
0.0989999
0.0989999
0.0989999
0.0969998
0.0969998
0.0969998
0.0969998
0.0969998
0.0949996
0.0949996
0.0949996
0.0949996
0.0949996
0.0929994
0.0929994
0.0929994
0.0929994
0.0929994
0.0909993
0.0909993
0.0909993
0.0909993
0.0909993
0.0889991
0.0889991
0.0889991
0.0889991
0.0889991
0.086999
0.086999
0.086999
0.086999
0.086999
0.0849988
0.0849988
0.0849988
0.0849988
0.0849988
0.0829987
0.0829987
0.0829987
0.0829987
0.0829987
0.0809986
0.0809986
0.0809986
0.0809986
0.0809986
0.0789984
0.0789984
0.0789984
0.0789984
0.0789984
0.0769983
0.0769983
0.0769983
0.0769983
0.0769983
0.0749982
0.0749982
0.0749982
0.0749982
0.0749982
0.0729981
0.0729981
0.0729981
0.0729981
0.0729981
0.070998
0.070998
0.070998
0.070998
0.070998
0.0689979
0.0689979
0.0689979
0.0689979
0.0689979
0.0669978
0.0669978
0.0669978
0.0669978
0.0669978
0.0649977
0.0649977
0.0649977
0.0649977
0.0649977
0.0629977
0.0629977
0.0629977
0.0629977
0.0629977
0.0609976
0.0609976
0.0609976
0.0609976
0.0609976
0.0589976
0.0589976
0.0589975
0.0589975
0.0589976
0.0569975
0.0569975
0.0569975
0.0569975
0.0569975
0.0549975
0.0549975
0.0549975
0.0549975
0.0549975
0.0529975
0.0529975
0.0529975
0.0529975
0.0529975
0.0509975
0.0509975
0.0509974
0.0509975
0.0509975
0.0489975
0.0489975
0.0489974
0.0489975
0.0489975
0.0469975
0.0469975
0.0469975
0.0469975
0.0469975
0.0449975
0.0449975
0.0449975
0.0449975
0.0449975
0.0429975
0.0429975
0.0429975
0.0429975
0.0429975
0.0409976
0.0409976
0.0409975
0.0409976
0.0409976
0.0389976
0.0389976
0.0389976
0.0389976
0.0389976
0.0369977
0.0369977
0.0369977
0.0369977
0.0369977
0.0349977
0.0349977
0.0349977
0.0349977
0.0349977
0.0329978
0.0329978
0.0329978
0.0329978
0.0329978
0.0309979
0.0309979
0.0309979
0.0309979
0.0309979
0.028998
0.028998
0.028998
0.028998
0.028998
0.0269981
0.0269981
0.0269981
0.0269981
0.0269981
0.0249982
0.0249982
0.0249982
0.0249982
0.0249982
0.0229983
0.0229983
0.0229983
0.0229983
0.0229983
0.0209984
0.0209984
0.0209984
0.0209984
0.0209984
0.0189986
0.0189986
0.0189986
0.0189986
0.0189986
0.0169987
0.0169987
0.0169987
0.0169987
0.0169987
0.0149988
0.0149988
0.0149988
0.0149988
0.0149988
0.012999
0.012999
0.012999
0.012999
0.012999
0.0109991
0.0109991
0.0109991
0.0109991
0.0109991
0.00899929
0.00899929
0.00899929
0.00899929
0.00899929
0.00699944
0.00699944
0.00699944
0.00699944
0.00699944
0.0049996
0.0049996
0.0049996
0.0049996
0.0049996
0.00299976
0.00299976
0.00299976
0.00299976
0.00299975
0.000999918
0.000999918
0.000999919
0.000999919
0.000999917
)
;



boundaryField
{
    movingWall
    {
        type            zeroGradient;
    }
    floor
    {
        type            zeroGradient;
    }
    Inlet
    {
        type            zeroGradient;
    }
    Outlet
    {
        type            zeroGradient;
    }
    frontAndBack
    {
        type            empty;
    }
}


// ************************************************************************* //
