/*--------------------------------*- C++ -*----------------------------------*\
| =========                 |                                                 |
| \\      /  F ield         | OpenFOAM: The Open Source CFD Toolbox           |
|  \\    /   O peration     | Version:  2206                                  |
|   \\  /    A nd           | Website:  www.openfoam.com                      |
|    \\/     M anipulation  |                                                 |
\*---------------------------------------------------------------------------*/
FoamFile
{
    version     2.0;
    format      ascii;
    class       volVectorField;
    object      U;
}
// * * * * * * * * * * * * * * * * * * * * * * * * * * * * * * * * * * * * * //

dimensions      [0 1 -1 0 0 0 0];

internalField   nonuniform List<vector> 
3600
(
(0.172102 1.66548e-09 0)
(0.172102 2.42947e-09 0)
(0.172101 1.42906e-09 0)
(0.172101 1.65382e-09 0)
(0.172101 1.26044e-09 0)
(0.172101 1.01523e-09 0)
(0.172101 8.54947e-10 0)
(0.172101 7.61843e-10 0)
(0.172101 6.91962e-10 0)
(0.172101 6.2019e-10 0)
(0.172101 5.30272e-10 0)
(0.172101 4.65733e-10 0)
(0.172101 4.45752e-10 0)
(0.172101 4.47417e-10 0)
(0.172101 4.1521e-10 0)
(0.1721 3.70951e-10 0)
(0.1721 3.31492e-10 0)
(0.1721 3.21294e-10 0)
(0.1721 3.10217e-10 0)
(0.1721 2.86372e-10 0)
(0.1721 2.51072e-10 0)
(0.1721 2.32005e-10 0)
(0.1721 2.15968e-10 0)
(0.1721 1.95183e-10 0)
(0.1721 1.55118e-10 0)
(0.1721 1.14904e-10 0)
(0.1721 1.04853e-10 0)
(0.1721 1.249e-10 0)
(0.1721 1.14435e-10 0)
(0.1721 1.17518e-10 0)
(0.1721 6.44559e-11 0)
(0.1721 3.6273e-11 0)
(0.1721 5.99637e-11 0)
(0.1721 1.04504e-10 0)
(0.1721 1.28954e-10 0)
(0.1721 1.33524e-10 0)
(0.1721 1.1468e-10 0)
(0.1721 1.06334e-10 0)
(0.1721 9.40333e-11 0)
(0.1721 9.35507e-11 0)
(0.1721 1.09236e-10 0)
(0.1721 1.13953e-10 0)
(0.1721 9.93754e-11 0)
(0.1721 7.16702e-11 0)
(0.1721 6.02002e-11 0)
(0.1721 7.22194e-11 0)
(0.1721 7.85889e-11 0)
(0.1721 7.68056e-11 0)
(0.1721 3.76719e-11 0)
(0.1721 2.64426e-12 0)
(0.1721 -8.11659e-12 0)
(0.1721 2.26695e-11 0)
(0.1721 6.29192e-11 0)
(0.1721 6.09979e-11 0)
(0.1721 1.79396e-10 0)
(0.1721 5.32284e-12 0)
(0.1721 2.24535e-10 0)
(0.1721 -6.2963e-10 0)
(0.1721 -6.57223e-11 0)
(0.1721 -1.74844e-10 0)
(0.504828 9.2531e-09 0)
(0.504827 1.53462e-08 0)
(0.504827 1.00572e-08 0)
(0.504826 9.29147e-09 0)
(0.504826 7.83158e-09 0)
(0.504826 6.53748e-09 0)
(0.504825 5.56149e-09 0)
(0.504825 4.95486e-09 0)
(0.504825 4.51707e-09 0)
(0.504825 4.1173e-09 0)
(0.504825 3.69353e-09 0)
(0.504824 3.36735e-09 0)
(0.504824 3.16099e-09 0)
(0.504824 3.02742e-09 0)
(0.504824 2.82379e-09 0)
(0.504824 2.60355e-09 0)
(0.504824 2.40323e-09 0)
(0.504824 2.29131e-09 0)
(0.504824 2.17855e-09 0)
(0.504823 2.04568e-09 0)
(0.504823 1.88801e-09 0)
(0.504823 1.78475e-09 0)
(0.504823 1.69097e-09 0)
(0.504823 1.58954e-09 0)
(0.504823 1.44813e-09 0)
(0.504823 1.32571e-09 0)
(0.504823 1.25885e-09 0)
(0.504823 1.2445e-09 0)
(0.504823 1.17005e-09 0)
(0.504823 1.12025e-09 0)
(0.504823 9.65437e-10 0)
(0.504823 8.88633e-10 0)
(0.504823 9.0219e-10 0)
(0.504823 9.65631e-10 0)
(0.504822 9.88242e-10 0)
(0.504822 9.87019e-10 0)
(0.504822 9.21493e-10 0)
(0.504822 8.64385e-10 0)
(0.504822 7.99439e-10 0)
(0.504822 7.89823e-10 0)
(0.504822 7.99572e-10 0)
(0.504822 7.88301e-10 0)
(0.504822 7.31331e-10 0)
(0.504822 6.52436e-10 0)
(0.504822 5.84011e-10 0)
(0.504822 5.84339e-10 0)
(0.504822 5.82677e-10 0)
(0.504822 5.80135e-10 0)
(0.504822 4.85994e-10 0)
(0.504822 4.04294e-10 0)
(0.504822 3.43151e-10 0)
(0.504822 3.96645e-10 0)
(0.504822 4.92151e-10 0)
(0.504822 4.61212e-10 0)
(0.504822 8.46826e-10 0)
(0.504822 3.12251e-10 0)
(0.504822 5.13277e-10 0)
(0.504822 -1.7453e-10 0)
(0.504822 -2.16205e-10 0)
(0.504822 -9.92165e-10 0)
(0.826076 2.34398e-08 0)
(0.826075 4.12658e-08 0)
(0.826074 2.86899e-08 0)
(0.826074 2.43521e-08 0)
(0.826073 2.08996e-08 0)
(0.826073 1.77948e-08 0)
(0.826072 1.54768e-08 0)
(0.826072 1.38953e-08 0)
(0.826072 1.26956e-08 0)
(0.826071 1.16428e-08 0)
(0.826071 1.06281e-08 0)
(0.826071 9.80833e-09 0)
(0.826071 9.16179e-09 0)
(0.826071 8.64456e-09 0)
(0.82607 8.07223e-09 0)
(0.82607 7.52392e-09 0)
(0.82607 7.02445e-09 0)
(0.82607 6.66664e-09 0)
(0.82607 6.30996e-09 0)
(0.826069 5.9523e-09 0)
(0.826069 5.57318e-09 0)
(0.826069 5.29327e-09 0)
(0.826069 5.03555e-09 0)
(0.826069 4.78999e-09 0)
(0.826069 4.50178e-09 0)
(0.826069 4.26084e-09 0)
(0.826069 4.06363e-09 0)
(0.826068 3.91008e-09 0)
(0.826068 3.69732e-09 0)
(0.826068 3.5062e-09 0)
(0.826068 3.22713e-09 0)
(0.826068 3.07796e-09 0)
(0.826068 3.0013e-09 0)
(0.826068 2.99132e-09 0)
(0.826068 2.93152e-09 0)
(0.826068 2.87142e-09 0)
(0.826068 2.72278e-09 0)
(0.826068 2.58456e-09 0)
(0.826068 2.43962e-09 0)
(0.826068 2.39858e-09 0)
(0.826067 2.34611e-09 0)
(0.826067 2.27459e-09 0)
(0.826067 2.13048e-09 0)
(0.826067 1.97705e-09 0)
(0.826067 1.81242e-09 0)
(0.826067 1.76356e-09 0)
(0.826067 1.72442e-09 0)
(0.826067 1.71607e-09 0)
(0.826067 1.57588e-09 0)
(0.826067 1.46454e-09 0)
(0.826067 1.31009e-09 0)
(0.826067 1.33981e-09 0)
(0.826067 1.38609e-09 0)
(0.826067 1.36371e-09 0)
(0.826067 1.77771e-09 0)
(0.826067 1.1242e-09 0)
(0.826067 1.1243e-09 0)
(0.826067 1.62373e-09 0)
(0.826067 -6.66607e-10 0)
(0.826067 -2.23958e-09 0)
(1.13585 4.10665e-08 0)
(1.13585 7.47997e-08 0)
(1.13584 5.42685e-08 0)
(1.13584 4.46652e-08 0)
(1.13584 3.83654e-08 0)
(1.13584 3.31405e-08 0)
(1.13584 2.93813e-08 0)
(1.13584 2.65608e-08 0)
(1.13584 2.42946e-08 0)
(1.13584 2.23396e-08 0)
(1.13584 2.05516e-08 0)
(1.13584 1.90593e-08 0)
(1.13584 1.77778e-08 0)
(1.13584 1.6685e-08 0)
(1.13584 1.55936e-08 0)
(1.13584 1.46076e-08 0)
(1.13584 1.37092e-08 0)
(1.13584 1.29908e-08 0)
(1.13584 1.22778e-08 0)
(1.13584 1.15979e-08 0)
(1.13584 1.0912e-08 0)
(1.13584 1.03715e-08 0)
(1.13584 9.87954e-09 0)
(1.13584 9.44736e-09 0)
(1.13584 8.97118e-09 0)
(1.13584 8.55233e-09 0)
(1.13584 8.15238e-09 0)
(1.13584 7.80115e-09 0)
(1.13584 7.39205e-09 0)
(1.13584 7.00946e-09 0)
(1.13584 6.56799e-09 0)
(1.13584 6.28817e-09 0)
(1.13584 6.06842e-09 0)
(1.13584 5.93613e-09 0)
(1.13584 5.74054e-09 0)
(1.13584 5.56145e-09 0)
(1.13584 5.29062e-09 0)
(1.13584 5.07047e-09 0)
(1.13584 4.84442e-09 0)
(1.13584 4.74059e-09 0)
(1.13584 4.58637e-09 0)
(1.13584 4.41736e-09 0)
(1.13584 4.13576e-09 0)
(1.13584 3.86966e-09 0)
(1.13584 3.60119e-09 0)
(1.13584 3.49857e-09 0)
(1.13584 3.40453e-09 0)
(1.13584 3.37482e-09 0)
(1.13584 3.16612e-09 0)
(1.13584 3.00668e-09 0)
(1.13584 2.72749e-09 0)
(1.13584 2.704e-09 0)
(1.13584 2.59752e-09 0)
(1.13584 2.67282e-09 0)
(1.13584 2.79817e-09 0)
(1.13584 2.40735e-09 0)
(1.13584 2.32528e-09 0)
(1.13584 2.8638e-09 0)
(1.13584 -3.20739e-10 0)
(1.13584 -3.44191e-09 0)
(1.43414 5.99907e-08 0)
(1.43414 1.12003e-07 0)
(1.43414 8.42472e-08 0)
(1.43414 6.88903e-08 0)
(1.43414 5.95104e-08 0)
(1.43414 5.19389e-08 0)
(1.43414 4.65247e-08 0)
(1.43414 4.22087e-08 0)
(1.43413 3.86387e-08 0)
(1.43413 3.55874e-08 0)
(1.43413 3.28694e-08 0)
(1.43413 3.05556e-08 0)
(1.43413 2.84962e-08 0)
(1.43413 2.67e-08 0)
(1.43413 2.4987e-08 0)
(1.43413 2.34737e-08 0)
(1.43413 2.20899e-08 0)
(1.43413 2.0919e-08 0)
(1.43413 1.97647e-08 0)
(1.43413 1.86859e-08 0)
(1.43413 1.76246e-08 0)
(1.43413 1.67572e-08 0)
(1.43413 1.59745e-08 0)
(1.43413 1.53085e-08 0)
(1.43413 1.45989e-08 0)
(1.43413 1.39507e-08 0)
(1.43413 1.32892e-08 0)
(1.43413 1.26932e-08 0)
(1.43413 1.20416e-08 0)
(1.43413 1.14315e-08 0)
(1.43413 1.0798e-08 0)
(1.43413 1.03419e-08 0)
(1.43413 9.9326e-09 0)
(1.43413 9.63704e-09 0)
(1.43413 9.27191e-09 0)
(1.43413 8.94338e-09 0)
(1.43413 8.52984e-09 0)
(1.43413 8.21287e-09 0)
(1.43413 7.88824e-09 0)
(1.43413 7.68918e-09 0)
(1.43413 7.40224e-09 0)
(1.43413 7.10719e-09 0)
(1.43413 6.66229e-09 0)
(1.43413 6.26702e-09 0)
(1.43413 5.88168e-09 0)
(1.43413 5.7124e-09 0)
(1.43413 5.54188e-09 0)
(1.43413 5.47299e-09 0)
(1.43413 5.17502e-09 0)
(1.43413 4.94783e-09 0)
(1.43413 4.51866e-09 0)
(1.43413 4.41589e-09 0)
(1.43413 4.13894e-09 0)
(1.43413 4.31993e-09 0)
(1.43413 4.1038e-09 0)
(1.43413 4.13109e-09 0)
(1.43413 3.70545e-09 0)
(1.43413 4.08809e-09 0)
(1.43413 1.07546e-09 0)
(1.43413 -4.60271e-09 0)
(1.72096 7.87929e-08 0)
(1.72096 1.50059e-07 0)
(1.72096 1.16615e-07 0)
(1.72096 9.59064e-08 0)
(1.72095 8.35327e-08 0)
(1.72095 7.34743e-08 0)
(1.72095 6.61859e-08 0)
(1.72095 6.01788e-08 0)
(1.72095 5.51507e-08 0)
(1.72095 5.08674e-08 0)
(1.72095 4.70919e-08 0)
(1.72095 4.38392e-08 0)
(1.72095 4.09073e-08 0)
(1.72095 3.83314e-08 0)
(1.72095 3.59266e-08 0)
(1.72095 3.38107e-08 0)
(1.72095 3.18667e-08 0)
(1.72095 3.01731e-08 0)
(1.72095 2.85166e-08 0)
(1.72095 2.69799e-08 0)
(1.72095 2.54884e-08 0)
(1.72095 2.42425e-08 0)
(1.72095 2.31222e-08 0)
(1.72095 2.2171e-08 0)
(1.72095 2.11774e-08 0)
(1.72095 2.02503e-08 0)
(1.72095 1.92833e-08 0)
(1.72095 1.84082e-08 0)
(1.72095 1.748e-08 0)
(1.72095 1.66173e-08 0)
(1.72095 1.57613e-08 0)
(1.72095 1.50923e-08 0)
(1.72095 1.44622e-08 0)
(1.72095 1.39768e-08 0)
(1.72095 1.34234e-08 0)
(1.72094 1.29301e-08 0)
(1.72094 1.23583e-08 0)
(1.72094 1.19196e-08 0)
(1.72094 1.14683e-08 0)
(1.72094 1.11448e-08 0)
(1.72094 1.07045e-08 0)
(1.72094 1.02646e-08 0)
(1.72094 9.64462e-09 0)
(1.72094 9.1105e-09 0)
(1.72094 8.59003e-09 0)
(1.72094 8.33633e-09 0)
(1.72094 8.06623e-09 0)
(1.72094 7.93964e-09 0)
(1.72094 7.5293e-09 0)
(1.72094 7.21926e-09 0)
(1.72094 6.62504e-09 0)
(1.72094 6.43655e-09 0)
(1.72094 5.99866e-09 0)
(1.72094 6.25285e-09 0)
(1.72094 5.70999e-09 0)
(1.72094 6.17779e-09 0)
(1.72094 5.21464e-09 0)
(1.72094 5.6678e-09 0)
(1.72094 2.33602e-09 0)
(1.72094 -5.68033e-09 0)
(1.9963 9.64525e-08 0)
(1.9963 1.86828e-07 0)
(1.9963 1.49608e-07 0)
(1.9963 1.24472e-07 0)
(1.9963 1.09364e-07 0)
(1.99629 9.6789e-08 0)
(1.99629 8.75072e-08 0)
(1.99629 7.97308e-08 0)
(1.99629 7.31915e-08 0)
(1.99629 6.76107e-08 0)
(1.99629 6.26978e-08 0)
(1.99629 5.84344e-08 0)
(1.99629 5.45842e-08 0)
(1.99629 5.11934e-08 0)
(1.99629 4.80526e-08 0)
(1.99629 4.52769e-08 0)
(1.99629 4.27175e-08 0)
(1.99629 4.04557e-08 0)
(1.99629 3.82585e-08 0)
(1.99629 3.62223e-08 0)
(1.99629 3.4261e-08 0)
(1.99629 3.25989e-08 0)
(1.99629 3.11036e-08 0)
(1.99629 2.98198e-08 0)
(1.99629 2.84955e-08 0)
(1.99629 2.72471e-08 0)
(1.99629 2.59489e-08 0)
(1.99629 2.47731e-08 0)
(1.99629 2.35462e-08 0)
(1.99629 2.24128e-08 0)
(1.99629 2.1302e-08 0)
(1.99629 2.03924e-08 0)
(1.99629 1.9526e-08 0)
(1.99629 1.88369e-08 0)
(1.99629 1.80849e-08 0)
(1.99629 1.74155e-08 0)
(1.99629 1.66689e-08 0)
(1.99629 1.60805e-08 0)
(1.99628 1.54731e-08 0)
(1.99628 1.5004e-08 0)
(1.99628 1.43999e-08 0)
(1.99628 1.3805e-08 0)
(1.99628 1.30041e-08 0)
(1.99628 1.23205e-08 0)
(1.99628 1.16455e-08 0)
(1.99628 1.12894e-08 0)
(1.99628 1.08995e-08 0)
(1.99628 1.06997e-08 0)
(1.99628 1.01562e-08 0)
(1.99628 9.75549e-09 0)
(1.99628 8.99004e-09 0)
(1.99628 8.72597e-09 0)
(1.99628 8.13305e-09 0)
(1.99628 8.41819e-09 0)
(1.99628 7.61939e-09 0)
(1.99628 8.39362e-09 0)
(1.99628 6.87226e-09 0)
(1.99628 7.59472e-09 0)
(1.99628 3.6293e-09 0)
(1.99628 -6.54017e-09 0)
(2.26016 1.123e-07 0)
(2.26016 2.20789e-07 0)
(2.26016 1.8168e-07 0)
(2.26016 1.53241e-07 0)
(2.26016 1.35777e-07 0)
(2.26016 1.20803e-07 0)
(2.26016 1.09562e-07 0)
(2.26016 1.00073e-07 0)
(2.26016 9.20687e-08 0)
(2.26016 8.52002e-08 0)
(2.26016 7.91327e-08 0)
(2.26016 7.3841e-08 0)
(2.26016 6.90698e-08 0)
(2.26016 6.48599e-08 0)
(2.26016 6.09645e-08 0)
(2.26016 5.74976e-08 0)
(2.26015 5.42943e-08 0)
(2.26015 5.1443e-08 0)
(2.26015 4.86874e-08 0)
(2.26015 4.61281e-08 0)
(2.26015 4.36742e-08 0)
(2.26015 4.15726e-08 0)
(2.26015 3.96769e-08 0)
(2.26015 3.80252e-08 0)
(2.26015 3.63381e-08 0)
(2.26015 3.47415e-08 0)
(2.26015 3.31025e-08 0)
(2.26015 3.16131e-08 0)
(2.26015 3.00764e-08 0)
(2.26015 2.86579e-08 0)
(2.26015 2.72657e-08 0)
(2.26015 2.60974e-08 0)
(2.26015 2.4988e-08 0)
(2.26015 2.40868e-08 0)
(2.26015 2.31289e-08 0)
(2.26015 2.22726e-08 0)
(2.26015 2.13349e-08 0)
(2.26015 2.05721e-08 0)
(2.26015 1.97852e-08 0)
(2.26015 1.91579e-08 0)
(2.26015 1.83861e-08 0)
(2.26015 1.76325e-08 0)
(2.26015 1.66481e-08 0)
(2.26015 1.58043e-08 0)
(2.26015 1.49575e-08 0)
(2.26015 1.44829e-08 0)
(2.26015 1.39586e-08 0)
(2.26015 1.36752e-08 0)
(2.26015 1.29869e-08 0)
(2.26015 1.24955e-08 0)
(2.26015 1.15572e-08 0)
(2.26015 1.12314e-08 0)
(2.26015 1.04757e-08 0)
(2.26015 1.07576e-08 0)
(2.26015 9.77221e-09 0)
(2.26015 1.0659e-08 0)
(2.26015 8.70969e-09 0)
(2.26015 9.72988e-09 0)
(2.26015 5.14251e-09 0)
(2.26015 -7.0727e-09 0)
(2.51255 1.25979e-07 0)
(2.51255 2.50972e-07 0)
(2.51255 2.11531e-07 0)
(2.51255 1.80885e-07 0)
(2.51255 1.6154e-07 0)
(2.51255 1.4446e-07 0)
(2.51255 1.31458e-07 0)
(2.51255 1.2043e-07 0)
(2.51255 1.11089e-07 0)
(2.51255 1.03012e-07 0)
(2.51255 9.58378e-08 0)
(2.51255 8.95531e-08 0)
(2.51255 8.38932e-08 0)
(2.51255 7.88848e-08 0)
(2.51255 7.42435e-08 0)
(2.51255 7.00853e-08 0)
(2.51254 6.62386e-08 0)
(2.51254 6.27991e-08 0)
(2.51254 5.94853e-08 0)
(2.51254 5.63985e-08 0)
(2.51254 5.34468e-08 0)
(2.51254 5.08974e-08 0)
(2.51254 4.85892e-08 0)
(2.51254 4.6552e-08 0)
(2.51254 4.44892e-08 0)
(2.51254 4.25347e-08 0)
(2.51254 4.05559e-08 0)
(2.51254 3.87471e-08 0)
(2.51254 3.68982e-08 0)
(2.51254 3.51853e-08 0)
(2.51254 3.34967e-08 0)
(2.51254 3.20608e-08 0)
(2.51254 3.07048e-08 0)
(2.51254 2.95844e-08 0)
(2.51254 2.84142e-08 0)
(2.51254 2.73618e-08 0)
(2.51254 2.6221e-08 0)
(2.51254 2.52669e-08 0)
(2.51254 2.4287e-08 0)
(2.51254 2.34956e-08 0)
(2.51254 2.25551e-08 0)
(2.51254 2.16426e-08 0)
(2.51254 2.04752e-08 0)
(2.51254 1.94635e-08 0)
(2.51254 1.84334e-08 0)
(2.51254 1.78273e-08 0)
(2.51254 1.71603e-08 0)
(2.51254 1.67873e-08 0)
(2.51254 1.59535e-08 0)
(2.51254 1.53749e-08 0)
(2.51254 1.4265e-08 0)
(2.51254 1.3884e-08 0)
(2.51254 1.29503e-08 0)
(2.51254 1.3209e-08 0)
(2.51254 1.20779e-08 0)
(2.51254 1.29195e-08 0)
(2.51254 1.07328e-08 0)
(2.51254 1.19432e-08 0)
(2.51254 6.76738e-09 0)
(2.51254 -7.23283e-09 0)
(2.75347 1.37357e-07 0)
(2.75347 2.76815e-07 0)
(2.75347 2.38138e-07 0)
(2.75347 2.06232e-07 0)
(2.75347 1.85561e-07 0)
(2.75347 1.66828e-07 0)
(2.75346 1.52396e-07 0)
(2.75346 1.40084e-07 0)
(2.75346 1.29591e-07 0)
(2.75346 1.20442e-07 0)
(2.75346 1.12266e-07 0)
(2.75346 1.0507e-07 0)
(2.75346 9.85825e-08 0)
(2.75346 9.28201e-08 0)
(2.75346 8.74705e-08 0)
(2.75346 8.26526e-08 0)
(2.75346 7.81904e-08 0)
(2.75346 7.4184e-08 0)
(2.75346 7.03301e-08 0)
(2.75346 6.67301e-08 0)
(2.75346 6.32934e-08 0)
(2.75346 6.03023e-08 0)
(2.75346 5.75845e-08 0)
(2.75346 5.51624e-08 0)
(2.75346 5.27284e-08 0)
(2.75346 5.04209e-08 0)
(2.75346 4.81095e-08 0)
(2.75346 4.59827e-08 0)
(2.75346 4.3826e-08 0)
(2.75346 4.18172e-08 0)
(2.75346 3.98316e-08 0)
(2.75346 3.81271e-08 0)
(2.75346 3.65233e-08 0)
(2.75346 3.51784e-08 0)
(2.75346 3.3792e-08 0)
(2.75346 3.25378e-08 0)
(2.75346 3.11895e-08 0)
(2.75346 3.0038e-08 0)
(2.75346 2.88623e-08 0)
(2.75345 2.79042e-08 0)
(2.75345 2.67955e-08 0)
(2.75345 2.57256e-08 0)
(2.75345 2.43789e-08 0)
(2.75345 2.3197e-08 0)
(2.75345 2.19808e-08 0)
(2.75345 2.12352e-08 0)
(2.75345 2.04228e-08 0)
(2.75345 1.99561e-08 0)
(2.75345 1.89835e-08 0)
(2.75345 1.83197e-08 0)
(2.75345 1.70436e-08 0)
(2.75345 1.66027e-08 0)
(2.75345 1.54821e-08 0)
(2.75345 1.57081e-08 0)
(2.75345 1.44399e-08 0)
(2.75345 1.51678e-08 0)
(2.75345 1.28894e-08 0)
(2.75345 1.4121e-08 0)
(2.75345 8.50416e-09 0)
(2.75345 -7.03248e-09 0)
(2.98291 1.46433e-07 0)
(2.98291 2.98028e-07 0)
(2.98291 2.60775e-07 0)
(2.98291 2.28383e-07 0)
(2.98291 2.06982e-07 0)
(2.98291 1.87145e-07 0)
(2.98291 1.71686e-07 0)
(2.9829 1.58389e-07 0)
(2.9829 1.46965e-07 0)
(2.9829 1.36922e-07 0)
(2.9829 1.27895e-07 0)
(2.9829 1.19902e-07 0)
(2.9829 1.12677e-07 0)
(2.9829 1.06231e-07 0)
(2.9829 1.00238e-07 0)
(2.9829 9.48195e-08 0)
(2.9829 8.97935e-08 0)
(2.9829 8.52602e-08 0)
(2.9829 8.09021e-08 0)
(2.9829 7.68215e-08 0)
(2.9829 7.29287e-08 0)
(2.9829 6.95166e-08 0)
(2.9829 6.64062e-08 0)
(2.9829 6.36157e-08 0)
(2.9829 6.08287e-08 0)
(2.9829 5.81841e-08 0)
(2.9829 5.55527e-08 0)
(2.9829 5.31172e-08 0)
(2.9829 5.06639e-08 0)
(2.9829 4.83676e-08 0)
(2.9829 4.60976e-08 0)
(2.9829 4.41317e-08 0)
(2.9829 4.22834e-08 0)
(2.9829 4.07134e-08 0)
(2.9829 3.91118e-08 0)
(2.9829 3.76557e-08 0)
(2.9829 3.61043e-08 0)
(2.9829 3.47591e-08 0)
(2.9829 3.33935e-08 0)
(2.9829 3.22691e-08 0)
(2.9829 3.09943e-08 0)
(2.9829 2.97695e-08 0)
(2.9829 2.82503e-08 0)
(2.9829 2.69024e-08 0)
(2.9829 2.55063e-08 0)
(2.98289 2.46191e-08 0)
(2.98289 2.36639e-08 0)
(2.98289 2.30996e-08 0)
(2.98289 2.19982e-08 0)
(2.98289 2.12475e-08 0)
(2.98289 1.9816e-08 0)
(2.98289 1.93034e-08 0)
(2.98289 1.8003e-08 0)
(2.98289 1.81887e-08 0)
(2.98289 1.67767e-08 0)
(2.98289 1.74011e-08 0)
(2.98289 1.50853e-08 0)
(2.98289 1.6193e-08 0)
(2.98289 1.03519e-08 0)
(2.98289 -6.52673e-09 0)
(3.20087 1.53261e-07 0)
(3.20087 3.14505e-07 0)
(3.20087 2.79018e-07 0)
(3.20087 2.46765e-07 0)
(3.20087 2.25204e-07 0)
(3.20087 2.04816e-07 0)
(3.20087 1.88743e-07 0)
(3.20087 1.74773e-07 0)
(3.20087 1.62663e-07 0)
(3.20087 1.51933e-07 0)
(3.20087 1.42231e-07 0)
(3.20087 1.33588e-07 0)
(3.20087 1.25739e-07 0)
(3.20087 1.18705e-07 0)
(3.20087 1.12159e-07 0)
(3.20087 1.0622e-07 0)
(3.20087 1.00701e-07 0)
(3.20087 9.56987e-08 0)
(3.20087 9.089e-08 0)
(3.20087 8.63777e-08 0)
(3.20087 8.20727e-08 0)
(3.20087 7.82738e-08 0)
(3.20087 7.48011e-08 0)
(3.20086 7.1671e-08 0)
(3.20086 6.85596e-08 0)
(3.20086 6.56029e-08 0)
(3.20086 6.26711e-08 0)
(3.20086 5.99453e-08 0)
(3.20086 5.72143e-08 0)
(3.20086 5.4649e-08 0)
(3.20086 5.21178e-08 0)
(3.20086 4.99056e-08 0)
(3.20086 4.78237e-08 0)
(3.20086 4.60348e-08 0)
(3.20086 4.42258e-08 0)
(3.20086 4.25741e-08 0)
(3.20086 4.08314e-08 0)
(3.20086 3.93036e-08 0)
(3.20086 3.77606e-08 0)
(3.20086 3.64736e-08 0)
(3.20086 3.50385e-08 0)
(3.20086 3.36628e-08 0)
(3.20086 3.19813e-08 0)
(3.20086 3.04768e-08 0)
(3.20086 2.89151e-08 0)
(3.20086 2.78897e-08 0)
(3.20086 2.67995e-08 0)
(3.20086 2.61337e-08 0)
(3.20086 2.49145e-08 0)
(3.20086 2.40729e-08 0)
(3.20086 2.25027e-08 0)
(3.20086 2.19065e-08 0)
(3.20086 2.04499e-08 0)
(3.20086 2.05833e-08 0)
(3.20086 1.90274e-08 0)
(3.20086 1.9588e-08 0)
(3.20086 1.72211e-08 0)
(3.20086 1.81274e-08 0)
(3.20086 1.22655e-08 0)
(3.20086 -5.78468e-09 0)
(3.40736 1.57911e-07 0)
(3.40736 3.26265e-07 0)
(3.40736 2.92713e-07 0)
(3.40736 2.61096e-07 0)
(3.40736 2.39855e-07 0)
(3.40736 2.194e-07 0)
(3.40736 2.03088e-07 0)
(3.40736 1.8875e-07 0)
(3.40736 1.76209e-07 0)
(3.40736 1.65016e-07 0)
(3.40736 1.54835e-07 0)
(3.40736 1.45703e-07 0)
(3.40736 1.3737e-07 0)
(3.40736 1.29868e-07 0)
(3.40736 1.22876e-07 0)
(3.40736 1.16513e-07 0)
(3.40736 1.10584e-07 0)
(3.40736 1.05187e-07 0)
(3.40736 9.99972e-08 0)
(3.40736 9.51162e-08 0)
(3.40736 9.04557e-08 0)
(3.40736 8.63169e-08 0)
(3.40736 8.25242e-08 0)
(3.40736 7.9093e-08 0)
(3.40736 7.56944e-08 0)
(3.40736 7.24591e-08 0)
(3.40736 6.9256e-08 0)
(3.40736 6.6268e-08 0)
(3.40736 6.32863e-08 0)
(3.40736 6.04794e-08 0)
(3.40736 5.77177e-08 0)
(3.40736 5.52822e-08 0)
(3.40736 5.2986e-08 0)
(3.40736 5.09929e-08 0)
(3.40736 4.89913e-08 0)
(3.40736 4.71565e-08 0)
(3.40736 4.52399e-08 0)
(3.40736 4.35453e-08 0)
(3.40736 4.18417e-08 0)
(3.40735 4.04006e-08 0)
(3.40735 3.88156e-08 0)
(3.40735 3.72963e-08 0)
(3.40735 3.5467e-08 0)
(3.40735 3.38192e-08 0)
(3.40735 3.21121e-08 0)
(3.40735 3.09563e-08 0)
(3.40735 2.97432e-08 0)
(3.40735 2.89732e-08 0)
(3.40735 2.76486e-08 0)
(3.40735 2.67136e-08 0)
(3.40735 2.50265e-08 0)
(3.40735 2.43401e-08 0)
(3.40735 2.27603e-08 0)
(3.40735 2.28239e-08 0)
(3.40735 2.11433e-08 0)
(3.40735 2.16621e-08 0)
(3.40735 1.92188e-08 0)
(3.40735 1.99071e-08 0)
(3.40735 1.41592e-08 0)
(3.40735 -4.86647e-09 0)
(3.60238 1.60463e-07 0)
(3.60238 3.33428e-07 0)
(3.60238 3.01902e-07 0)
(3.60238 2.71302e-07 0)
(3.60238 2.50736e-07 0)
(3.60238 2.3059e-07 0)
(3.60238 2.14357e-07 0)
(3.60238 1.99936e-07 0)
(3.60238 1.87218e-07 0)
(3.60238 1.75788e-07 0)
(3.60238 1.65328e-07 0)
(3.60238 1.55884e-07 0)
(3.60238 1.4722e-07 0)
(3.60238 1.39384e-07 0)
(3.60238 1.32067e-07 0)
(3.60238 1.25385e-07 0)
(3.60238 1.19144e-07 0)
(3.60238 1.13439e-07 0)
(3.60238 1.07949e-07 0)
(3.60238 1.02774e-07 0)
(3.60238 9.78253e-08 0)
(3.60238 9.34049e-08 0)
(3.60238 8.93446e-08 0)
(3.60238 8.56591e-08 0)
(3.60238 8.20185e-08 0)
(3.60238 7.85463e-08 0)
(3.60238 7.51115e-08 0)
(3.60238 7.18988e-08 0)
(3.60238 6.87023e-08 0)
(3.60238 6.56884e-08 0)
(3.60238 6.27316e-08 0)
(3.60238 6.01023e-08 0)
(3.60237 5.76193e-08 0)
(3.60237 5.54443e-08 0)
(3.60237 5.3272e-08 0)
(3.60237 5.12729e-08 0)
(3.60237 4.92039e-08 0)
(3.60237 4.73611e-08 0)
(3.60237 4.55167e-08 0)
(3.60237 4.39348e-08 0)
(3.60237 4.22161e-08 0)
(3.60237 4.05652e-08 0)
(3.60237 3.86076e-08 0)
(3.60237 3.68331e-08 0)
(3.60237 3.50039e-08 0)
(3.60237 3.37282e-08 0)
(3.60237 3.24081e-08 0)
(3.60237 3.15345e-08 0)
(3.60237 3.01195e-08 0)
(3.60237 2.9093e-08 0)
(3.60237 2.73144e-08 0)
(3.60237 2.65376e-08 0)
(3.60237 2.48691e-08 0)
(3.60237 2.48439e-08 0)
(3.60237 2.30765e-08 0)
(3.60237 2.35387e-08 0)
(3.60237 2.10255e-08 0)
(3.60237 2.15087e-08 0)
(3.60237 1.59338e-08 0)
(3.60237 -3.81936e-09 0)
(3.78593 1.61004e-07 0)
(3.78593 3.36181e-07 0)
(3.78593 3.0674e-07 0)
(3.78593 2.77433e-07 0)
(3.78593 2.57771e-07 0)
(3.78593 2.38207e-07 0)
(3.78593 2.22311e-07 0)
(3.78592 2.08061e-07 0)
(3.78592 1.95403e-07 0)
(3.78592 1.83953e-07 0)
(3.78592 1.73411e-07 0)
(3.78592 1.63832e-07 0)
(3.78592 1.54998e-07 0)
(3.78592 1.46972e-07 0)
(3.78592 1.39457e-07 0)
(3.78592 1.32569e-07 0)
(3.78592 1.2612e-07 0)
(3.78592 1.20202e-07 0)
(3.78592 1.14502e-07 0)
(3.78592 1.09114e-07 0)
(3.78592 1.03954e-07 0)
(3.78592 9.93198e-08 0)
(3.78592 9.50527e-08 0)
(3.78592 9.11667e-08 0)
(3.78592 8.73359e-08 0)
(3.78592 8.36762e-08 0)
(3.78592 8.0059e-08 0)
(3.78592 7.66669e-08 0)
(3.78592 7.32997e-08 0)
(3.78592 7.01193e-08 0)
(3.78592 6.70066e-08 0)
(3.78592 6.42183e-08 0)
(3.78592 6.1582e-08 0)
(3.78592 5.92541e-08 0)
(3.78592 5.69396e-08 0)
(3.78592 5.48005e-08 0)
(3.78592 5.26044e-08 0)
(3.78592 5.06343e-08 0)
(3.78592 4.86717e-08 0)
(3.78592 4.6967e-08 0)
(3.78592 4.51357e-08 0)
(3.78592 4.33711e-08 0)
(3.78592 4.13099e-08 0)
(3.78592 3.94282e-08 0)
(3.78592 3.75018e-08 0)
(3.78592 3.61185e-08 0)
(3.78592 3.47102e-08 0)
(3.78592 3.37379e-08 0)
(3.78592 3.22517e-08 0)
(3.78592 3.11411e-08 0)
(3.78592 2.92981e-08 0)
(3.78592 2.8436e-08 0)
(3.78592 2.67101e-08 0)
(3.78592 2.65808e-08 0)
(3.78592 2.4773e-08 0)
(3.78592 2.51385e-08 0)
(3.78592 2.26012e-08 0)
(3.78592 2.28935e-08 0)
(3.78592 1.75031e-08 0)
(3.78592 -2.68444e-09 0)
(3.958 1.5964e-07 0)
(3.958 3.34748e-07 0)
(3.958 3.07422e-07 0)
(3.958 2.79597e-07 0)
(3.958 2.60974e-07 0)
(3.958 2.42188e-07 0)
(3.958 2.26832e-07 0)
(3.958 2.12971e-07 0)
(3.958 2.00582e-07 0)
(3.958 1.8931e-07 0)
(3.958 1.7887e-07 0)
(3.958 1.69327e-07 0)
(3.958 1.60482e-07 0)
(3.958 1.52407e-07 0)
(3.958 1.44823e-07 0)
(3.958 1.37845e-07 0)
(3.958 1.31295e-07 0)
(3.95799 1.25263e-07 0)
(3.95799 1.19447e-07 0)
(3.95799 1.13935e-07 0)
(3.95799 1.08646e-07 0)
(3.95799 1.03872e-07 0)
(3.95799 9.94655e-08 0)
(3.95799 9.54385e-08 0)
(3.95799 9.14753e-08 0)
(3.95799 8.76833e-08 0)
(3.95799 8.39395e-08 0)
(3.95799 8.04199e-08 0)
(3.95799 7.69322e-08 0)
(3.95799 7.36309e-08 0)
(3.95799 7.04048e-08 0)
(3.95799 6.74965e-08 0)
(3.95799 6.47455e-08 0)
(3.95799 6.22988e-08 0)
(3.95799 5.9876e-08 0)
(3.95799 5.76263e-08 0)
(3.95799 5.53322e-08 0)
(3.95799 5.32586e-08 0)
(3.95799 5.12027e-08 0)
(3.95799 4.93973e-08 0)
(3.95799 4.74794e-08 0)
(3.95799 4.56241e-08 0)
(3.95799 4.34883e-08 0)
(3.95799 4.15215e-08 0)
(3.95799 3.95243e-08 0)
(3.95799 3.80477e-08 0)
(3.95799 3.65722e-08 0)
(3.95799 3.55109e-08 0)
(3.95799 3.39762e-08 0)
(3.95799 3.27936e-08 0)
(3.95799 3.09138e-08 0)
(3.95799 2.99748e-08 0)
(3.95799 2.82192e-08 0)
(3.95799 2.79781e-08 0)
(3.95799 2.61736e-08 0)
(3.95799 2.64028e-08 0)
(3.95799 2.39054e-08 0)
(3.95799 2.40126e-08 0)
(3.95799 1.88075e-08 0)
(3.95799 -1.50617e-09 0)
(4.11859 1.56487e-07 0)
(4.11859 3.29367e-07 0)
(4.11859 3.04154e-07 0)
(4.11859 2.77934e-07 0)
(4.11859 2.60431e-07 0)
(4.11859 2.42569e-07 0)
(4.11859 2.27915e-07 0)
(4.11859 2.14616e-07 0)
(4.11859 2.02672e-07 0)
(4.11859 1.91748e-07 0)
(4.11859 1.81576e-07 0)
(4.11859 1.72225e-07 0)
(4.11859 1.63517e-07 0)
(4.11859 1.55529e-07 0)
(4.11859 1.48001e-07 0)
(4.11859 1.41049e-07 0)
(4.11859 1.34505e-07 0)
(4.11859 1.28459e-07 0)
(4.11859 1.22621e-07 0)
(4.11859 1.17074e-07 0)
(4.11859 1.11743e-07 0)
(4.11859 1.06907e-07 0)
(4.11859 1.02432e-07 0)
(4.11859 9.83277e-08 0)
(4.11859 9.42934e-08 0)
(4.11859 9.04283e-08 0)
(4.11859 8.66176e-08 0)
(4.11859 8.30261e-08 0)
(4.11859 7.94725e-08 0)
(4.11859 7.60996e-08 0)
(4.11859 7.28065e-08 0)
(4.11859 6.9821e-08 0)
(4.11859 6.69972e-08 0)
(4.11859 6.447e-08 0)
(4.11859 6.19767e-08 0)
(4.11859 5.96501e-08 0)
(4.11859 5.72905e-08 0)
(4.11859 5.5141e-08 0)
(4.11859 5.30199e-08 0)
(4.11859 5.11392e-08 0)
(4.11859 4.91637e-08 0)
(4.11859 4.72446e-08 0)
(4.11859 4.50661e-08 0)
(4.11859 4.3039e-08 0)
(4.11859 4.09988e-08 0)
(4.11859 3.94462e-08 0)
(4.11859 3.79268e-08 0)
(4.11859 3.67904e-08 0)
(4.11859 3.52319e-08 0)
(4.11859 3.39924e-08 0)
(4.11859 3.21031e-08 0)
(4.11859 3.10978e-08 0)
(4.11859 2.93387e-08 0)
(4.11859 2.89874e-08 0)
(4.11859 2.72204e-08 0)
(4.11859 2.72935e-08 0)
(4.11859 2.48919e-08 0)
(4.11859 2.48161e-08 0)
(4.11859 1.98121e-08 0)
(4.11859 -3.38723e-10 0)
(4.26772 1.51671e-07 0)
(4.26772 3.2028e-07 0)
(4.26772 2.97143e-07 0)
(4.26772 2.72611e-07 0)
(4.26772 2.56287e-07 0)
(4.26772 2.39466e-07 0)
(4.26772 2.25636e-07 0)
(4.26772 2.13037e-07 0)
(4.26772 2.01677e-07 0)
(4.26772 1.91241e-07 0)
(4.26772 1.81478e-07 0)
(4.26772 1.72457e-07 0)
(4.26772 1.64017e-07 0)
(4.26772 1.56241e-07 0)
(4.26772 1.48887e-07 0)
(4.26772 1.42072e-07 0)
(4.26772 1.35637e-07 0)
(4.26772 1.29673e-07 0)
(4.26772 1.23906e-07 0)
(4.26772 1.18414e-07 0)
(4.26772 1.13125e-07 0)
(4.26772 1.08307e-07 0)
(4.26772 1.03835e-07 0)
(4.26772 9.97204e-08 0)
(4.26772 9.56788e-08 0)
(4.26772 9.18017e-08 0)
(4.26772 8.79847e-08 0)
(4.26772 8.43788e-08 0)
(4.26772 8.08158e-08 0)
(4.26772 7.74237e-08 0)
(4.26772 7.41133e-08 0)
(4.26772 7.10966e-08 0)
(4.26772 6.82446e-08 0)
(4.26772 6.5678e-08 0)
(4.26772 6.31545e-08 0)
(4.26772 6.0788e-08 0)
(4.26772 5.83985e-08 0)
(4.26772 5.62042e-08 0)
(4.26772 5.40491e-08 0)
(4.26772 5.21215e-08 0)
(4.26772 5.01195e-08 0)
(4.26772 4.81657e-08 0)
(4.26772 4.59773e-08 0)
(4.26772 4.39171e-08 0)
(4.26772 4.18636e-08 0)
(4.26772 4.02561e-08 0)
(4.26772 3.87178e-08 0)
(4.26772 3.75241e-08 0)
(4.26772 3.59666e-08 0)
(4.26772 3.46872e-08 0)
(4.26772 3.28151e-08 0)
(4.26772 3.17567e-08 0)
(4.26772 3.00203e-08 0)
(4.26772 2.95685e-08 0)
(4.26772 2.78627e-08 0)
(4.26772 2.77859e-08 0)
(4.26772 2.55124e-08 0)
(4.26772 2.52618e-08 0)
(4.26772 2.04957e-08 0)
(4.26772 7.59602e-10 0)
(4.40537 1.45315e-07 0)
(4.40537 3.07729e-07 0)
(4.40537 2.86613e-07 0)
(4.40537 2.63833e-07 0)
(4.40537 2.48735e-07 0)
(4.40537 2.3305e-07 0)
(4.40537 2.20138e-07 0)
(4.40537 2.08339e-07 0)
(4.40537 1.9767e-07 0)
(4.40537 1.87834e-07 0)
(4.40537 1.78595e-07 0)
(4.40537 1.70021e-07 0)
(4.40537 1.61963e-07 0)
(4.40537 1.54509e-07 0)
(4.40538 1.47438e-07 0)
(4.40538 1.4086e-07 0)
(4.40538 1.34632e-07 0)
(4.40538 1.28841e-07 0)
(4.40538 1.23233e-07 0)
(4.40538 1.17881e-07 0)
(4.40538 1.12718e-07 0)
(4.40538 1.07994e-07 0)
(4.40538 1.03598e-07 0)
(4.40538 9.95388e-08 0)
(4.40538 9.55538e-08 0)
(4.40538 9.17262e-08 0)
(4.40538 8.79629e-08 0)
(4.40538 8.44003e-08 0)
(4.40538 8.08846e-08 0)
(4.40538 7.75274e-08 0)
(4.40538 7.42515e-08 0)
(4.40538 7.1252e-08 0)
(4.40538 6.84179e-08 0)
(4.40538 6.58546e-08 0)
(4.40538 6.33428e-08 0)
(4.40538 6.0975e-08 0)
(4.40538 5.85936e-08 0)
(4.40538 5.63889e-08 0)
(4.40538 5.42336e-08 0)
(4.40538 5.229e-08 0)
(4.40538 5.02933e-08 0)
(4.40538 4.83349e-08 0)
(4.40538 4.61695e-08 0)
(4.40538 4.41055e-08 0)
(4.40538 4.20697e-08 0)
(4.40538 4.04324e-08 0)
(4.40538 3.89013e-08 0)
(4.40538 3.7671e-08 0)
(4.40538 3.61384e-08 0)
(4.40538 3.48383e-08 0)
(4.40538 3.3009e-08 0)
(4.40538 3.1914e-08 0)
(4.40538 3.02261e-08 0)
(4.40538 2.96897e-08 0)
(4.40538 2.80621e-08 0)
(4.40538 2.78593e-08 0)
(4.40538 2.57256e-08 0)
(4.40538 2.53203e-08 0)
(4.40538 2.08392e-08 0)
(4.40538 1.73635e-09 0)
(4.53155 1.37534e-07 0)
(4.53155 2.91961e-07 0)
(4.53155 2.72809e-07 0)
(4.53155 2.51838e-07 0)
(4.53155 2.38003e-07 0)
(4.53156 2.23528e-07 0)
(4.53156 2.11602e-07 0)
(4.53156 2.00677e-07 0)
(4.53156 1.90779e-07 0)
(4.53156 1.8163e-07 0)
(4.53156 1.73008e-07 0)
(4.53156 1.64974e-07 0)
(4.53156 1.57395e-07 0)
(4.53156 1.50358e-07 0)
(4.53156 1.43663e-07 0)
(4.53156 1.37415e-07 0)
(4.53156 1.31481e-07 0)
(4.53156 1.25947e-07 0)
(4.53156 1.2058e-07 0)
(4.53156 1.15447e-07 0)
(4.53156 1.10487e-07 0)
(4.53156 1.05931e-07 0)
(4.53156 1.0168e-07 0)
(4.53156 9.7742e-08 0)
(4.53156 9.38764e-08 0)
(4.53156 9.01583e-08 0)
(4.53156 8.65071e-08 0)
(4.53156 8.30446e-08 0)
(4.53156 7.9632e-08 0)
(4.53156 7.63638e-08 0)
(4.53156 7.31752e-08 0)
(4.53156 7.02421e-08 0)
(4.53156 6.74724e-08 0)
(4.53156 6.49558e-08 0)
(4.53156 6.24975e-08 0)
(4.53156 6.01683e-08 0)
(4.53156 5.78339e-08 0)
(4.53156 5.56555e-08 0)
(4.53156 5.35353e-08 0)
(4.53156 5.16079e-08 0)
(4.53156 4.96485e-08 0)
(4.53156 4.7716e-08 0)
(4.53156 4.56059e-08 0)
(4.53156 4.35692e-08 0)
(4.53156 4.15828e-08 0)
(4.53156 3.9944e-08 0)
(4.53156 3.84462e-08 0)
(4.53156 3.72024e-08 0)
(4.53156 3.57177e-08 0)
(4.53156 3.44181e-08 0)
(4.53156 3.26563e-08 0)
(4.53156 3.15447e-08 0)
(4.53156 2.99295e-08 0)
(4.53156 2.93279e-08 0)
(4.53156 2.77931e-08 0)
(4.53156 2.74948e-08 0)
(4.53156 2.5503e-08 0)
(4.53156 2.49744e-08 0)
(4.53156 2.08202e-08 0)
(4.53156 2.55227e-09 0)
(4.64626 1.28442e-07 0)
(4.64626 2.7323e-07 0)
(4.64626 2.56001e-07 0)
(4.64626 2.3689e-07 0)
(4.64626 2.24343e-07 0)
(4.64626 2.11131e-07 0)
(4.64626 2.00239e-07 0)
(4.64627 1.90243e-07 0)
(4.64627 1.81174e-07 0)
(4.64627 1.72777e-07 0)
(4.64627 1.64843e-07 0)
(4.64627 1.57426e-07 0)
(4.64627 1.50404e-07 0)
(4.64627 1.43865e-07 0)
(4.64627 1.37628e-07 0)
(4.64627 1.31787e-07 0)
(4.64627 1.26225e-07 0)
(4.64627 1.21022e-07 0)
(4.64627 1.1597e-07 0)